/*--------------------------------*- C++ -*----------------------------------*\
| =========                 |                                                 |
| \\      /  F ield         | OpenFOAM: The Open Source CFD Toolbox           |
|  \\    /   O peration     | Version:  2406                                  |
|   \\  /    A nd           | Website:  www.openfoam.com                      |
|    \\/     M anipulation  |                                                 |
\*---------------------------------------------------------------------------*/
FoamFile
{
    version     2.0;
    format      ascii;
    arch        "LSB;label=32;scalar=64";
    class       volScalarField;
    location    "3828";
    object      p;
}
// * * * * * * * * * * * * * * * * * * * * * * * * * * * * * * * * * * * * * //

dimensions      [0 2 -2 0 0 0 0];

internalField   nonuniform List<scalar> 
210970
(
-0.0490536
-0.0489874
-0.048961
-0.0489644
-0.0489603
-0.048947
-0.0489348
-0.0489254
-0.048916
-0.0489058
-0.0488957
-0.0488858
-0.0488758
-0.0488658
-0.048856
-0.0488462
-0.0488363
-0.0488266
-0.048817
-0.0488074
-0.0487979
-0.0487884
-0.048779
-0.0487697
-0.0487604
-0.0487513
-0.0487423
-0.0487334
-0.0487246
-0.048716
-0.0487076
-0.0486993
-0.0486911
-0.048683
-0.0486751
-0.0486674
-0.0486599
-0.0486525
-0.0486453
-0.0486383
-0.0486315
-0.048625
-0.0486187
-0.0486126
-0.0486068
-0.0486013
-0.0485959
-0.0485908
-0.0485858
-0.0485811
-0.0485766
-0.0485722
-0.0485682
-0.0485646
-0.0485612
-0.0485582
-0.0485555
-0.0485531
-0.0485512
-0.0485495
-0.0485483
-0.0485473
-0.0485467
-0.0485465
-0.0485466
-0.048547
-0.0485477
-0.0485487
-0.0485501
-0.0485518
-0.0485539
-0.0485563
-0.0485592
-0.0485624
-0.0485661
-0.0485702
-0.0485747
-0.0485795
-0.0485848
-0.0485904
-0.0485964
-0.0486027
-0.0486094
-0.0486165
-0.0486239
-0.0486317
-0.0486398
-0.0486484
-0.0486573
-0.0486667
-0.0486765
-0.0486867
-0.0486972
-0.0487082
-0.0487195
-0.0487312
-0.0487433
-0.0487558
-0.0487686
-0.0487817
-0.0487952
-0.048809
-0.0488231
-0.0488376
-0.0488523
-0.0488673
-0.0488826
-0.0488983
-0.0489141
-0.0489302
-0.0489467
-0.0489636
-0.0489807
-0.0489981
-0.0490158
-0.0490338
-0.0490521
-0.0490706
-0.0490893
-0.0491082
-0.0491274
-0.0491468
-0.0491664
-0.0491861
-0.0492061
-0.0492262
-0.0492465
-0.049267
-0.0492876
-0.0493083
-0.0493292
-0.0493502
-0.0493714
-0.0493925
-0.0494138
-0.0494351
-0.0494564
-0.0494777
-0.0494991
-0.0495204
-0.0495417
-0.0495629
-0.0495841
-0.0496053
-0.0496263
-0.0496473
-0.0496682
-0.049689
-0.0497097
-0.0497303
-0.0497506
-0.0497709
-0.0497905
-0.0498101
-0.0498292
-0.0498484
-0.049867
-0.0498856
-0.049904
-0.0499221
-0.0499398
-0.0499571
-0.0499741
-0.0499906
-0.0500068
-0.0500226
-0.0500379
-0.0500527
-0.050067
-0.0500807
-0.0500939
-0.0501065
-0.0501185
-0.0501298
-0.0501406
-0.0501506
-0.0501599
-0.0501685
-0.0501764
-0.0501835
-0.0501898
-0.0501953
-0.0501999
-0.0502037
-0.0502066
-0.0502085
-0.0502095
-0.0502095
-0.0502085
-0.0502065
-0.0502034
-0.0501992
-0.050194
-0.0501875
-0.05018
-0.0501712
-0.0501612
-0.05015
-0.0501375
-0.0501237
-0.0501086
-0.0500921
-0.0500743
-0.050055
-0.0500344
-0.0500123
-0.0499887
-0.0499636
-0.049937
-0.0499089
-0.0498792
-0.049848
-0.0498151
-0.0497807
-0.0497445
-0.0497068
-0.0496673
-0.0496262
-0.0495833
-0.0495387
-0.0494923
-0.0494441
-0.0493942
-0.0493424
-0.0492888
-0.0492334
-0.049176
-0.0491167
-0.0490555
-0.0489923
-0.0489271
-0.0488598
-0.0487904
-0.0487189
-0.0486452
-0.0485693
-0.0484912
-0.0484107
-0.0483277
-0.0482422
-0.0481541
-0.0480633
-0.0479697
-0.0478731
-0.0477734
-0.0476705
-0.0475641
-0.0474541
-0.0473404
-0.0472226
-0.0471005
-0.0469739
-0.0468424
-0.0467058
-0.0465638
-0.0464159
-0.0462618
-0.046101
-0.0459331
-0.0457576
-0.045574
-0.0453817
-0.0451801
-0.0449687
-0.0447466
-0.0445133
-0.0442679
-0.0440098
-0.043738
-0.0434516
-0.04315
-0.0428319
-0.0424966
-0.042143
-0.0417701
-0.0413767
-0.040962
-0.0405247
-0.0400638
-0.0395782
-0.0390667
-0.0385284
-0.0379621
-0.0373668
-0.0367417
-0.0360858
-0.0353982
-0.0346783
-0.0339254
-0.0331392
-0.0323191
-0.0314652
-0.0305773
-0.0296559
-0.0287012
-0.0277141
-0.0266956
-0.0256468
-0.0245695
-0.0234654
-0.0223369
-0.0211864
-0.0200168
-0.0188314
-0.0176336
-0.0164273
-0.0152166
-0.0140058
-0.0127996
-0.0116026
-0.0104199
-0.00925626
-0.00811682
-0.00700648
-0.0059301
-0.00489237
-0.00389774
-0.00295037
-0.00205409
-0.00121229
-0.000427964
0.000296424
0.000958891
0.00155798
0.00209278
0.00256289
0.0029684
0.00330989
0.00358837
0.0038052
0.00396209
0.00406097
0.00410394
0.00409316
0.00403074
0.00391858
0.00375834
0.00355036
0.00329581
0.0029856
0.0026243
0.00207352
0.00120646
-0.0244855
-0.0244862
-0.0244882
-0.02449
-0.0244916
-0.0244933
-0.024495
-0.0244967
-0.0244984
-0.0245002
-0.0245021
-0.0245039
-0.0245058
-0.0245077
-0.0245097
-0.0245116
-0.0245136
-0.0245156
-0.0245176
-0.0245197
-0.0245217
-0.0245239
-0.024526
-0.0245281
-0.0245304
-0.0245327
-0.024535
-0.0245374
-0.0245398
-0.0245423
-0.0245448
-0.0245473
-0.0245499
-0.0245526
-0.0245553
-0.024558
-0.0245608
-0.0245635
-0.0245664
-0.0245692
-0.0245721
-0.0245749
-0.0245777
-0.0245806
-0.0245836
-0.0245864
-0.0245895
-0.0245925
-0.0245957
-0.0245989
-0.0246022
-0.0246058
-0.0246093
-0.0246128
-0.0246162
-0.0246198
-0.0246234
-0.0246269
-0.0246305
-0.0246342
-0.0246378
-0.0246415
-0.0246452
-0.0246489
-0.0246527
-0.0246565
-0.0246603
-0.0246642
-0.0246682
-0.0246722
-0.0246763
-0.0246804
-0.0246846
-0.0246889
-0.0246932
-0.0246976
-0.0247021
-0.0247066
-0.0247112
-0.0247158
-0.0247205
-0.0247252
-0.02473
-0.0247349
-0.0247398
-0.0247447
-0.0247498
-0.0247549
-0.0247601
-0.0247653
-0.0247706
-0.024776
-0.0247815
-0.0247871
-0.0247927
-0.0247983
-0.0248041
-0.0248099
-0.0248158
-0.0248217
-0.0248278
-0.0248339
-0.0248401
-0.0248463
-0.0248527
-0.0248592
-0.0248658
-0.0248724
-0.0248793
-0.0248863
-0.0248933
-0.0249004
-0.0249075
-0.0249148
-0.0249222
-0.0249297
-0.0249372
-0.0249449
-0.0249526
-0.0249604
-0.0249683
-0.0249764
-0.0249844
-0.0249926
-0.0250008
-0.0250091
-0.0250176
-0.0250261
-0.0250347
-0.0250434
-0.0250522
-0.0250612
-0.0250702
-0.0250794
-0.0250887
-0.0250982
-0.0251078
-0.0251175
-0.0251274
-0.0251374
-0.0251476
-0.0251579
-0.0251684
-0.025179
-0.0251898
-0.0252007
-0.0252119
-0.0252232
-0.0252346
-0.0252462
-0.0252581
-0.02527
-0.0252825
-0.0252951
-0.0253082
-0.0253209
-0.0253344
-0.0253477
-0.0253611
-0.0253747
-0.0253886
-0.0254026
-0.0254169
-0.0254314
-0.0254461
-0.025461
-0.0254761
-0.0254915
-0.0255071
-0.025523
-0.0255391
-0.0255554
-0.025572
-0.0255889
-0.025606
-0.0256234
-0.025641
-0.0256588
-0.0256769
-0.0256952
-0.0257137
-0.0257325
-0.0257515
-0.0257707
-0.0257901
-0.0258098
-0.0258296
-0.0258497
-0.0258699
-0.0258903
-0.0259108
-0.0259315
-0.0259524
-0.0259733
-0.0259943
-0.0260155
-0.0260366
-0.0260579
-0.0260791
-0.0261003
-0.0261215
-0.0261427
-0.0261637
-0.0261846
-0.0262053
-0.0262259
-0.0262462
-0.0262662
-0.0262859
-0.0263052
-0.0263241
-0.0263425
-0.0263604
-0.0263776
-0.0263942
-0.0264101
-0.0264252
-0.0264395
-0.0264528
-0.0264651
-0.0264763
-0.0264862
-0.0264949
-0.0265023
-0.0265081
-0.0265123
-0.0265149
-0.0265156
-0.0265143
-0.0265111
-0.0265056
-0.0264978
-0.0264875
-0.0264745
-0.0264587
-0.0264399
-0.0264179
-0.0263926
-0.0263637
-0.026331
-0.0262944
-0.0262536
-0.0262083
-0.0261584
-0.0261036
-0.0260435
-0.0259779
-0.0259065
-0.0258291
-0.0257452
-0.0256545
-0.0255567
-0.0254514
-0.0253383
-0.0252168
-0.0250866
-0.0249473
-0.0247984
-0.0246394
-0.0244698
-0.0242891
-0.0240968
-0.0238924
-0.0236753
-0.0234449
-0.0232006
-0.0229418
-0.022668
-0.0223785
-0.0220728
-0.0217501
-0.0214099
-0.0210516
-0.0206746
-0.0202783
-0.0198622
-0.0194257
-0.0189683
-0.0184897
-0.0179895
-0.0174672
-0.0169229
-0.0163561
-0.0157669
-0.0151554
-0.0145218
-0.0138664
-0.0131896
-0.0124921
-0.0117746
-0.0110383
-0.0102843
-0.00951393
-0.00872891
-0.00793107
-0.00712248
-0.00630546
-0.00548255
-0.00465651
-0.00383033
-0.00300717
-0.0021904
-0.00138353
-0.000590227
0.000185787
0.000940705
0.00167071
0.00237203
0.00304097
0.00367394
0.00426759
0.00481877
0.00532464
0.00578268
0.00619078
0.00654724
0.00685079
0.00710068
0.00729662
0.00743881
0.00752793
0.00756515
0.00755203
0.00749058
0.00738312
0.00723229
0.00704095
0.00681213
0.00654894
0.00625452
0.00593195
0.00558415
0.00521382
0.0048233
0.00441452
0.00398869
0.00354634
0.00308598
0.00260542
0.00209045
0.00153147
0.000822149
0.000154034
-0.0560651
-0.0560625
-0.0560625
-0.0560645
-0.0560663
-0.0560676
-0.0560687
-0.05607
-0.0560713
-0.0560726
-0.0560739
-0.0560751
-0.0560764
-0.0560777
-0.056079
-0.0560803
-0.0560816
-0.0560829
-0.0560842
-0.0560856
-0.056087
-0.0560883
-0.0560897
-0.0560911
-0.0560925
-0.0560939
-0.0560953
-0.0560967
-0.0560982
-0.0560996
-0.056101
-0.0561024
-0.0561039
-0.0561053
-0.0561068
-0.0561083
-0.0561099
-0.0561114
-0.056113
-0.0561146
-0.0561162
-0.0561178
-0.0561194
-0.056121
-0.0561226
-0.0561242
-0.0561259
-0.0561276
-0.0561293
-0.0561311
-0.0561329
-0.0561349
-0.0561368
-0.0561386
-0.0561405
-0.0561424
-0.0561443
-0.0561462
-0.0561481
-0.05615
-0.056152
-0.0561539
-0.0561559
-0.0561578
-0.0561598
-0.0561618
-0.0561638
-0.0561658
-0.0561678
-0.0561699
-0.0561719
-0.0561741
-0.0561762
-0.0561784
-0.0561806
-0.0561829
-0.0561852
-0.0561875
-0.0561899
-0.0561923
-0.0561947
-0.0561972
-0.0561997
-0.0562022
-0.0562047
-0.0562072
-0.0562098
-0.0562123
-0.0562149
-0.0562176
-0.0562202
-0.0562229
-0.0562256
-0.0562284
-0.0562312
-0.056234
-0.0562368
-0.0562396
-0.0562425
-0.0562453
-0.0562482
-0.0562512
-0.0562541
-0.056257
-0.05626
-0.0562631
-0.0562662
-0.0562692
-0.0562724
-0.0562756
-0.0562787
-0.0562818
-0.0562849
-0.0562881
-0.0562912
-0.0562944
-0.0562975
-0.0563006
-0.0563037
-0.0563067
-0.0563098
-0.0563128
-0.0563159
-0.0563189
-0.0563218
-0.0563248
-0.0563277
-0.0563306
-0.0563335
-0.0563363
-0.0563391
-0.0563418
-0.0563445
-0.0563472
-0.0563498
-0.0563523
-0.0563549
-0.0563573
-0.0563597
-0.0563621
-0.0563644
-0.0563666
-0.0563688
-0.0563708
-0.0563728
-0.0563747
-0.0563765
-0.0563783
-0.0563799
-0.0563813
-0.0563827
-0.0563839
-0.0563853
-0.0563864
-0.0563875
-0.0563882
-0.0563891
-0.0563895
-0.0563897
-0.0563898
-0.0563897
-0.0563894
-0.0563888
-0.0563881
-0.0563872
-0.056386
-0.0563846
-0.056383
-0.0563811
-0.0563789
-0.0563765
-0.0563738
-0.0563708
-0.0563675
-0.0563639
-0.05636
-0.0563557
-0.0563511
-0.0563461
-0.0563407
-0.056335
-0.0563288
-0.0563222
-0.0563152
-0.0563077
-0.0562998
-0.0562913
-0.0562824
-0.0562729
-0.0562628
-0.0562522
-0.0562409
-0.0562291
-0.0562166
-0.0562034
-0.0561895
-0.0561749
-0.0561596
-0.0561435
-0.0561266
-0.0561088
-0.0560901
-0.0560706
-0.0560501
-0.0560286
-0.056006
-0.0559824
-0.0559576
-0.0559317
-0.0559046
-0.0558761
-0.0558464
-0.0558152
-0.0557826
-0.0557484
-0.0557127
-0.0556752
-0.0556361
-0.0555951
-0.0555521
-0.0555072
-0.0554602
-0.0554109
-0.0553594
-0.0553054
-0.0552489
-0.0551897
-0.0551276
-0.0550626
-0.0549945
-0.0549232
-0.0548484
-0.05477
-0.0546878
-0.0546016
-0.0545111
-0.0544163
-0.0543167
-0.0542123
-0.0541027
-0.0539876
-0.0538668
-0.0537399
-0.0536067
-0.0534667
-0.0533197
-0.0531652
-0.0530028
-0.0528322
-0.0526528
-0.0524642
-0.052266
-0.0520575
-0.0518384
-0.0516079
-0.0513655
-0.0511107
-0.0508426
-0.0505608
-0.0502644
-0.0499529
-0.0496253
-0.0492809
-0.048919
-0.0485387
-0.0481391
-0.0477195
-0.0472789
-0.0468164
-0.0463311
-0.045822
-0.0452884
-0.0447292
-0.0441436
-0.0435307
-0.0428895
-0.0422193
-0.0415193
-0.0407888
-0.040027
-0.0392334
-0.0384074
-0.0375487
-0.036657
-0.035732
-0.0347739
-0.0337828
-0.0327589
-0.0317029
-0.0306156
-0.0294978
-0.0283508
-0.0271762
-0.0259756
-0.0247511
-0.0235051
-0.0222401
-0.0209591
-0.0196652
-0.0183619
-0.0170531
-0.0157426
-0.0144346
-0.0131337
-0.0118443
-0.0105712
-0.00931916
-0.00809297
-0.00689743
-0.00573729
-0.00461712
-0.00354134
-0.00251412
-0.00153932
-0.000620495
0.000239233
0.00103714
0.00177099
0.00243902
0.00303994
0.00357301
0.00403797
0.00443504
0.0047649
0.00502867
0.00522787
0.00536432
0.00544012
0.0054576
0.00541921
0.00532745
0.00518479
0.00499356
0.0047558
0.00447316
0.00414657
0.00377614
0.00335958
0.00289384
0.00236214
0.00176092
0.00099511
0.000307005
-0.0454107
-0.0454034
-0.0454019
-0.045404
-0.0454055
-0.0454059
-0.0454063
-0.0454069
-0.0454076
-0.0454083
-0.045409
-0.0454097
-0.0454104
-0.0454112
-0.0454119
-0.0454127
-0.0454135
-0.0454143
-0.0454151
-0.0454159
-0.0454168
-0.0454176
-0.0454185
-0.0454194
-0.0454203
-0.0454213
-0.0454222
-0.0454232
-0.0454242
-0.0454253
-0.0454264
-0.0454275
-0.0454286
-0.0454297
-0.0454309
-0.0454321
-0.0454333
-0.0454346
-0.0454359
-0.0454372
-0.0454387
-0.0454402
-0.0454418
-0.0454435
-0.0454452
-0.0454471
-0.0454489
-0.0454508
-0.0454526
-0.0454545
-0.0454563
-0.0454579
-0.0454598
-0.0454618
-0.0454639
-0.045466
-0.0454682
-0.0454704
-0.0454728
-0.0454752
-0.0454778
-0.0454804
-0.0454831
-0.0454859
-0.0454888
-0.0454918
-0.0454948
-0.0454979
-0.0455011
-0.0455043
-0.0455076
-0.045511
-0.0455144
-0.0455179
-0.0455214
-0.045525
-0.0455287
-0.0455325
-0.0455364
-0.0455403
-0.0455443
-0.0455484
-0.0455526
-0.0455569
-0.0455612
-0.0455656
-0.0455701
-0.0455747
-0.0455794
-0.0455842
-0.045589
-0.0455939
-0.045599
-0.0456041
-0.0456093
-0.0456147
-0.0456201
-0.0456256
-0.0456313
-0.0456371
-0.0456429
-0.045649
-0.045655
-0.0456613
-0.0456676
-0.045674
-0.0456805
-0.0456871
-0.0456937
-0.0457003
-0.0457071
-0.0457142
-0.0457213
-0.0457285
-0.0457359
-0.0457434
-0.0457511
-0.0457589
-0.0457668
-0.0457749
-0.0457831
-0.0457915
-0.0458001
-0.0458088
-0.0458177
-0.0458267
-0.0458359
-0.0458454
-0.045855
-0.0458648
-0.0458748
-0.0458849
-0.0458953
-0.0459059
-0.0459166
-0.0459276
-0.0459387
-0.04595
-0.0459616
-0.0459733
-0.0459852
-0.0459974
-0.0460097
-0.0460222
-0.046035
-0.0460479
-0.046061
-0.0460743
-0.0460878
-0.0461016
-0.0461155
-0.0461298
-0.0461439
-0.0461584
-0.0461729
-0.0461878
-0.0462026
-0.0462179
-0.0462336
-0.0462494
-0.0462654
-0.0462817
-0.0462982
-0.0463149
-0.0463319
-0.046349
-0.0463664
-0.046384
-0.0464018
-0.0464197
-0.0464379
-0.0464562
-0.0464747
-0.0464934
-0.0465122
-0.0465312
-0.0465503
-0.0465696
-0.0465889
-0.0466084
-0.0466279
-0.0466476
-0.0466673
-0.046687
-0.0467068
-0.0467266
-0.0467464
-0.0467661
-0.0467858
-0.0468055
-0.046825
-0.0468444
-0.0468637
-0.0468827
-0.0469015
-0.0469201
-0.0469383
-0.0469562
-0.0469737
-0.0469907
-0.0470073
-0.0470233
-0.0470387
-0.0470534
-0.0470675
-0.0470807
-0.0470931
-0.0471045
-0.0471149
-0.0471242
-0.0471323
-0.0471392
-0.0471446
-0.0471485
-0.0471508
-0.0471514
-0.0471502
-0.047147
-0.0471416
-0.047134
-0.047124
-0.0471114
-0.047096
-0.0470777
-0.0470563
-0.0470316
-0.0470034
-0.0469714
-0.0469355
-0.0468954
-0.0468508
-0.0468014
-0.0467471
-0.0466874
-0.0466222
-0.0465511
-0.0464737
-0.0463897
-0.0462987
-0.0462003
-0.0460942
-0.0459799
-0.0458569
-0.0457249
-0.0455833
-0.0454317
-0.0452694
-0.0450961
-0.044911
-0.0447137
-0.0445035
-0.0442798
-0.0440419
-0.0437892
-0.0435209
-0.0432364
-0.0429349
-0.0426156
-0.0422777
-0.0419205
-0.0415432
-0.0411448
-0.0407245
-0.0402815
-0.0398149
-0.0393238
-0.0388074
-0.0382647
-0.0376949
-0.0370972
-0.0364707
-0.0358146
-0.0351282
-0.0344107
-0.0336614
-0.0328798
-0.0320654
-0.0312176
-0.0303361
-0.0294208
-0.0284715
-0.0274883
-0.0264714
-0.0254212
-0.0243382
-0.0232233
-0.0220775
-0.0209021
-0.0196985
-0.0184685
-0.0172143
-0.0159381
-0.0146427
-0.013331
-0.0120063
-0.0106722
-0.00933256
-0.00799154
-0.00665357
-0.00532337
-0.00400583
-0.00270605
-0.00142928
-0.000180876
0.00103378
0.00220928
0.0033403
0.00442162
0.00544822
0.00641535
0.00731856
0.0081538
0.00891745
0.0096064
0.0102181
0.0107505
0.0112024
0.0115729
0.011862
0.0120703
0.012199
0.0122497
0.012225
0.0121276
0.0119607
0.0117282
0.0114338
0.0110817
0.0106762
0.0102216
0.00972185
0.00918102
0.00860265
0.00798982
0.00734496
0.00666947
0.00596365
0.00522501
0.00445033
0.00362255
0.00274511
0.00171866
0.000743619
-0.0682743
-0.0682654
-0.0682623
-0.0682636
-0.0682647
-0.0682645
-0.0682641
-0.068264
-0.0682642
-0.0682643
-0.0682644
-0.0682646
-0.0682648
-0.068265
-0.0682652
-0.0682655
-0.0682658
-0.0682661
-0.0682664
-0.0682668
-0.0682672
-0.0682676
-0.068268
-0.0682685
-0.068269
-0.0682695
-0.06827
-0.0682706
-0.0682712
-0.0682718
-0.0682724
-0.0682731
-0.0682738
-0.0682745
-0.0682753
-0.068276
-0.0682768
-0.0682776
-0.0682784
-0.0682793
-0.0682802
-0.0682811
-0.068282
-0.068283
-0.068284
-0.068285
-0.068286
-0.068287
-0.0682879
-0.0682889
-0.0682898
-0.0682906
-0.0682916
-0.0682927
-0.0682938
-0.0682948
-0.068296
-0.0682971
-0.0682983
-0.0682995
-0.0683008
-0.068302
-0.0683034
-0.0683047
-0.068306
-0.0683074
-0.0683088
-0.0683102
-0.0683116
-0.068313
-0.0683144
-0.0683158
-0.0683173
-0.0683187
-0.0683201
-0.0683215
-0.0683229
-0.0683244
-0.0683258
-0.0683272
-0.0683286
-0.06833
-0.0683314
-0.0683328
-0.0683342
-0.0683356
-0.068337
-0.0683385
-0.0683399
-0.0683414
-0.0683428
-0.0683443
-0.0683457
-0.0683472
-0.0683486
-0.0683501
-0.0683515
-0.068353
-0.0683544
-0.0683558
-0.0683572
-0.0683586
-0.0683599
-0.0683613
-0.0683626
-0.0683639
-0.0683652
-0.0683664
-0.0683675
-0.0683686
-0.0683698
-0.068371
-0.0683721
-0.0683732
-0.0683743
-0.0683754
-0.0683764
-0.0683775
-0.0683785
-0.0683795
-0.0683805
-0.0683814
-0.0683823
-0.0683832
-0.0683841
-0.0683849
-0.0683857
-0.0683864
-0.0683871
-0.0683878
-0.0683884
-0.068389
-0.0683895
-0.0683899
-0.0683903
-0.0683906
-0.0683908
-0.068391
-0.0683911
-0.0683911
-0.068391
-0.0683908
-0.0683905
-0.0683901
-0.0683896
-0.068389
-0.0683882
-0.0683873
-0.0683863
-0.0683852
-0.0683839
-0.0683825
-0.0683807
-0.0683788
-0.0683766
-0.0683745
-0.0683719
-0.0683694
-0.0683668
-0.068364
-0.0683609
-0.0683575
-0.068354
-0.0683502
-0.0683461
-0.0683418
-0.0683372
-0.0683323
-0.0683272
-0.0683216
-0.0683158
-0.0683096
-0.068303
-0.068296
-0.0682887
-0.0682808
-0.0682726
-0.0682639
-0.0682546
-0.0682449
-0.0682346
-0.0682238
-0.0682123
-0.0682003
-0.0681876
-0.0681742
-0.0681601
-0.0681453
-0.0681297
-0.0681133
-0.0680961
-0.068078
-0.0680589
-0.0680389
-0.0680178
-0.0679957
-0.0679724
-0.0679479
-0.0679222
-0.0678952
-0.0678668
-0.067837
-0.0678056
-0.0677727
-0.0677381
-0.0677018
-0.0676636
-0.0676235
-0.0675813
-0.0675371
-0.0674906
-0.0674417
-0.0673904
-0.0673365
-0.0672799
-0.0672204
-0.0671578
-0.0670922
-0.0670232
-0.0669507
-0.0668745
-0.0667944
-0.0667103
-0.066622
-0.0665291
-0.0664315
-0.066329
-0.0662212
-0.066108
-0.065989
-0.0658639
-0.0657325
-0.0655944
-0.0654493
-0.0652968
-0.0651366
-0.0649683
-0.0647914
-0.0646056
-0.0644103
-0.0642052
-0.0639897
-0.0637634
-0.0635257
-0.063276
-0.0630138
-0.0627386
-0.0624496
-0.0621462
-0.0618278
-0.0614936
-0.0611431
-0.0607753
-0.0603896
-0.0599851
-0.0595612
-0.0591168
-0.0586512
-0.0581636
-0.057653
-0.0571185
-0.0565592
-0.0559742
-0.0553625
-0.0547233
-0.0540556
-0.0533585
-0.0526311
-0.0518725
-0.0510818
-0.0502582
-0.0494009
-0.0485092
-0.0475824
-0.0466199
-0.0456213
-0.044586
-0.0435139
-0.0424046
-0.0412582
-0.0400748
-0.0388547
-0.0375983
-0.0363064
-0.0349798
-0.0336196
-0.0322272
-0.0308043
-0.0293527
-0.0278747
-0.0263728
-0.0248497
-0.0233085
-0.0217527
-0.020186
-0.0186123
-0.017036
-0.0154615
-0.0138938
-0.0123377
-0.0107984
-0.00928137
-0.00779191
-0.00633552
-0.00491768
-0.00354378
-0.00221914
-0.000948853
0.000262198
0.00140944
0.00248866
0.00349606
0.0044283
0.00528256
0.00605655
0.00674858
0.00735752
0.00788288
0.00832473
0.00868375
0.00896118
0.00915877
0.00927877
0.00932384
0.00929703
0.00920165
0.00904124
0.00881948
0.0085401
0.00820675
0.00782295
0.00739196
0.00691666
0.00639938
0.00584175
0.00524436
0.00460664
0.00392534
0.00319638
0.0024042
0.00154915
0.000572635
-0.00017878
-0.0654432
-0.0654398
-0.06544
-0.0654435
-0.0654469
-0.0654495
-0.0654519
-0.0654546
-0.0654574
-0.0654601
-0.0654629
-0.0654657
-0.0654686
-0.0654715
-0.0654745
-0.0654775
-0.0654805
-0.0654836
-0.0654868
-0.06549
-0.0654932
-0.0654965
-0.0654998
-0.0655031
-0.0655065
-0.06551
-0.0655135
-0.0655171
-0.0655207
-0.0655243
-0.0655281
-0.0655318
-0.0655356
-0.0655395
-0.0655434
-0.0655473
-0.0655513
-0.0655553
-0.0655594
-0.0655634
-0.0655674
-0.0655715
-0.0655755
-0.0655795
-0.0655835
-0.0655876
-0.0655917
-0.0655959
-0.0656003
-0.0656047
-0.0656093
-0.0656144
-0.0656192
-0.0656239
-0.0656286
-0.0656334
-0.0656382
-0.065643
-0.0656478
-0.0656527
-0.0656575
-0.0656624
-0.0656673
-0.0656723
-0.0656773
-0.0656823
-0.0656874
-0.0656925
-0.0656977
-0.065703
-0.0657083
-0.0657137
-0.0657192
-0.0657247
-0.0657303
-0.065736
-0.0657419
-0.0657477
-0.0657537
-0.0657597
-0.0657658
-0.065772
-0.0657783
-0.0657846
-0.0657911
-0.0657975
-0.0658041
-0.0658108
-0.0658175
-0.0658244
-0.0658313
-0.0658383
-0.0658454
-0.0658526
-0.0658599
-0.0658672
-0.0658746
-0.0658822
-0.0658898
-0.0658974
-0.0659052
-0.065913
-0.065921
-0.065929
-0.0659372
-0.0659455
-0.0659539
-0.0659625
-0.0659713
-0.0659803
-0.0659894
-0.0659984
-0.0660076
-0.066017
-0.0660264
-0.0660359
-0.0660456
-0.0660553
-0.0660651
-0.0660751
-0.0660851
-0.0660952
-0.0661054
-0.0661157
-0.0661262
-0.0661367
-0.0661473
-0.0661579
-0.0661687
-0.0661795
-0.0661904
-0.0662013
-0.0662123
-0.0662234
-0.0662345
-0.0662457
-0.066257
-0.0662683
-0.0662797
-0.0662911
-0.0663026
-0.0663142
-0.0663258
-0.0663375
-0.0663492
-0.066361
-0.0663729
-0.0663848
-0.0663967
-0.0664087
-0.0664207
-0.0664326
-0.066445
-0.0664572
-0.0664697
-0.0664818
-0.0664944
-0.0665066
-0.0665186
-0.0665306
-0.0665426
-0.0665546
-0.0665664
-0.0665781
-0.0665897
-0.0666011
-0.0666124
-0.0666236
-0.0666345
-0.0666452
-0.0666558
-0.0666661
-0.0666762
-0.066686
-0.0666955
-0.0667047
-0.0667136
-0.0667221
-0.0667302
-0.0667379
-0.0667451
-0.0667519
-0.0667581
-0.0667638
-0.0667689
-0.0667733
-0.0667771
-0.0667801
-0.0667823
-0.0667837
-0.0667842
-0.0667838
-0.0667824
-0.06678
-0.0667764
-0.0667716
-0.0667655
-0.0667581
-0.0667493
-0.0667389
-0.066727
-0.0667133
-0.0666978
-0.0666805
-0.0666611
-0.0666397
-0.0666159
-0.0665898
-0.0665612
-0.0665299
-0.0664959
-0.0664589
-0.0664187
-0.0663753
-0.0663284
-0.0662779
-0.0662235
-0.0661651
-0.0661024
-0.0660351
-0.0659632
-0.0658862
-0.065804
-0.0657162
-0.0656226
-0.0655229
-0.0654168
-0.0653039
-0.0651838
-0.0650563
-0.064921
-0.0647774
-0.0646251
-0.0644637
-0.0642928
-0.0641118
-0.0639203
-0.0637178
-0.0635038
-0.0632777
-0.0630388
-0.0627868
-0.0625208
-0.0622403
-0.0619446
-0.061633
-0.0613048
-0.0609593
-0.0605957
-0.0602132
-0.059811
-0.0593884
-0.0589443
-0.0584781
-0.0579887
-0.0574753
-0.0569369
-0.0563727
-0.0557817
-0.0551629
-0.0545154
-0.0538382
-0.0531303
-0.0523909
-0.0516189
-0.0508136
-0.0499739
-0.049099
-0.0481882
-0.0472407
-0.0462558
-0.0452328
-0.0441712
-0.0430707
-0.0419307
-0.0407512
-0.039532
-0.0382732
-0.0369751
-0.035638
-0.0342625
-0.0328495
-0.0314
-0.0299153
-0.028397
-0.0268468
-0.025267
-0.0236598
-0.0220279
-0.0203745
-0.0187028
-0.0170165
-0.0153195
-0.0136161
-0.011911
-0.0102089
-0.008515
-0.00683463
-0.00517335
-0.00353689
-0.00193113
-0.000361988
0.00116455
0.00264256
0.00406616
0.00542965
0.00672752
0.00795455
0.00910584
0.0101769
0.0111637
0.0120627
0.012871
0.0135861
0.0142064
0.0147307
0.0151587
0.0154906
0.0157273
0.0158704
0.0159219
0.0158847
0.0157619
0.0155571
0.0152746
0.0149184
0.0144932
0.0140037
0.0134545
0.0128501
0.012195
0.0114932
0.0107483
0.0099633
0.00914041
0.00828066
0.00738393
0.00644721
0.00546779
0.00442956
0.00334723
0.00212649
0.00100327
-0.0846585
-0.0846512
-0.0846476
-0.0846483
-0.0846491
-0.0846488
-0.0846481
-0.0846477
-0.0846473
-0.0846469
-0.0846464
-0.0846459
-0.0846453
-0.0846447
-0.0846442
-0.0846436
-0.0846429
-0.0846423
-0.0846416
-0.0846409
-0.0846402
-0.0846395
-0.0846387
-0.084638
-0.0846372
-0.0846363
-0.0846355
-0.0846347
-0.0846338
-0.0846329
-0.084632
-0.084631
-0.0846301
-0.0846291
-0.0846281
-0.084627
-0.084626
-0.0846249
-0.0846239
-0.0846229
-0.0846218
-0.0846208
-0.0846197
-0.0846187
-0.0846177
-0.0846166
-0.0846156
-0.0846145
-0.0846134
-0.0846123
-0.0846112
-0.0846101
-0.0846088
-0.0846076
-0.0846064
-0.0846052
-0.0846039
-0.0846027
-0.0846015
-0.0846003
-0.084599
-0.0845978
-0.0845966
-0.0845953
-0.084594
-0.0845928
-0.0845915
-0.0845902
-0.0845888
-0.0845875
-0.0845862
-0.0845848
-0.0845834
-0.0845821
-0.0845807
-0.0845793
-0.084578
-0.0845766
-0.0845752
-0.0845738
-0.0845724
-0.084571
-0.0845695
-0.0845681
-0.0845666
-0.0845651
-0.0845635
-0.084562
-0.0845604
-0.0845588
-0.0845572
-0.0845555
-0.0845538
-0.0845521
-0.0845504
-0.0845487
-0.0845469
-0.0845451
-0.0845433
-0.0845414
-0.0845395
-0.0845376
-0.0845357
-0.0845337
-0.0845317
-0.0845297
-0.0845276
-0.0845254
-0.0845232
-0.0845209
-0.0845186
-0.0845161
-0.0845137
-0.0845111
-0.0845085
-0.0845058
-0.084503
-0.0845002
-0.0844972
-0.0844942
-0.0844911
-0.0844879
-0.0844846
-0.0844813
-0.0844778
-0.0844742
-0.0844705
-0.0844667
-0.0844627
-0.0844587
-0.0844545
-0.0844502
-0.0844458
-0.0844412
-0.0844366
-0.0844317
-0.0844267
-0.0844216
-0.0844163
-0.0844108
-0.0844052
-0.0843993
-0.0843933
-0.084387
-0.0843805
-0.0843738
-0.0843669
-0.0843597
-0.0843522
-0.0843445
-0.0843365
-0.0843282
-0.0843195
-0.0843106
-0.0843012
-0.0842915
-0.0842813
-0.0842708
-0.0842599
-0.0842485
-0.0842368
-0.0842245
-0.0842118
-0.0841985
-0.0841848
-0.0841705
-0.0841556
-0.0841402
-0.0841241
-0.0841074
-0.08409
-0.0840719
-0.084053
-0.0840334
-0.084013
-0.0839917
-0.0839695
-0.0839464
-0.0839224
-0.0838973
-0.0838712
-0.083844
-0.0838156
-0.083786
-0.0837552
-0.083723
-0.0836895
-0.0836546
-0.0836181
-0.0835801
-0.0835404
-0.083499
-0.0834557
-0.0834106
-0.0833636
-0.0833144
-0.0832631
-0.0832096
-0.0831537
-0.0830954
-0.0830344
-0.0829708
-0.0829043
-0.0828349
-0.0827624
-0.0826867
-0.0826076
-0.0825249
-0.0824386
-0.0823483
-0.082254
-0.0821555
-0.0820525
-0.0819448
-0.0818323
-0.0817147
-0.0815917
-0.0814632
-0.0813288
-0.0811883
-0.0810414
-0.0808879
-0.0807273
-0.0805594
-0.0803838
-0.0802002
-0.0800082
-0.0798074
-0.0795975
-0.0793779
-0.0791483
-0.0789082
-0.0786572
-0.0783947
-0.0781202
-0.0778332
-0.0775332
-0.0772195
-0.0768916
-0.0765488
-0.0761905
-0.0758161
-0.0754248
-0.0750159
-0.0745887
-0.0741425
-0.0736764
-0.0731897
-0.0726816
-0.0721511
-0.0715975
-0.0710199
-0.0704173
-0.0697888
-0.0691336
-0.0684507
-0.0677391
-0.0669979
-0.0662261
-0.0654228
-0.0645871
-0.063718
-0.0628146
-0.0618761
-0.0609015
-0.0598901
-0.058841
-0.0577536
-0.0566271
-0.0554611
-0.054255
-0.0530085
-0.0517211
-0.0503928
-0.0490235
-0.0476134
-0.0461626
-0.0446717
-0.0431413
-0.0415722
-0.0399656
-0.0383227
-0.0366451
-0.0349346
-0.0331933
-0.0314237
-0.0296283
-0.0278103
-0.0259728
-0.0241195
-0.0222543
-0.0203814
-0.0185053
-0.0166308
-0.014763
-0.012907
-0.0110685
-0.00925298
-0.00746639
-0.0057146
-0.00400357
-0.00233926
-0.000727589
0.000825648
0.00231482
0.00373453
0.00507966
0.00634546
0.00752759
0.00862215
0.00962577
0.0105356
0.0113495
0.0120658
0.0126836
0.0132024
0.0136228
0.0139456
0.0141724
0.0143055
0.0143474
0.0143015
0.0141714
0.013961
0.0136747
0.013317
0.0128924
0.0124055
0.011861
0.0112633
0.0106164
0.00992407
0.00918948
0.00841516
0.00760274
0.00675273
0.00586442
0.00493453
0.0039597
0.00292654
0.00184158
0.000657585
-0.000245288
-0.0869177
-0.0869102
-0.0869082
-0.0869109
-0.0869134
-0.0869146
-0.0869155
-0.0869168
-0.0869182
-0.0869197
-0.0869211
-0.0869226
-0.0869242
-0.0869257
-0.0869274
-0.086929
-0.0869307
-0.0869324
-0.0869341
-0.0869359
-0.0869377
-0.0869395
-0.0869414
-0.0869433
-0.0869452
-0.0869471
-0.0869492
-0.0869512
-0.0869533
-0.0869554
-0.0869575
-0.0869597
-0.086962
-0.0869642
-0.0869665
-0.0869688
-0.0869712
-0.0869737
-0.0869762
-0.0869788
-0.0869815
-0.0869843
-0.0869872
-0.0869902
-0.0869932
-0.0869963
-0.0869994
-0.0870025
-0.0870056
-0.0870088
-0.0870119
-0.0870148
-0.087018
-0.0870214
-0.0870248
-0.0870282
-0.0870317
-0.0870353
-0.087039
-0.0870427
-0.0870465
-0.0870503
-0.0870542
-0.0870582
-0.0870622
-0.0870663
-0.0870704
-0.0870746
-0.0870788
-0.0870831
-0.0870874
-0.0870918
-0.0870961
-0.0871005
-0.087105
-0.0871095
-0.087114
-0.0871185
-0.0871231
-0.0871278
-0.0871324
-0.0871372
-0.0871419
-0.0871467
-0.0871515
-0.0871564
-0.0871613
-0.0871663
-0.0871713
-0.0871764
-0.0871814
-0.0871866
-0.0871917
-0.087197
-0.0872022
-0.0872075
-0.0872128
-0.0872181
-0.0872235
-0.0872289
-0.0872343
-0.0872398
-0.0872452
-0.0872507
-0.0872562
-0.0872618
-0.0872672
-0.0872728
-0.0872782
-0.0872835
-0.0872889
-0.0872944
-0.0872999
-0.0873053
-0.0873107
-0.0873161
-0.0873215
-0.0873269
-0.0873323
-0.0873377
-0.087343
-0.0873484
-0.0873537
-0.087359
-0.0873642
-0.0873694
-0.0873745
-0.0873796
-0.0873846
-0.0873895
-0.0873944
-0.0873992
-0.087404
-0.0874086
-0.0874132
-0.0874176
-0.087422
-0.0874263
-0.0874304
-0.0874344
-0.0874383
-0.087442
-0.0874455
-0.0874488
-0.0874519
-0.0874549
-0.0874575
-0.08746
-0.0874622
-0.0874641
-0.0874657
-0.087467
-0.087468
-0.0874686
-0.0874688
-0.0874687
-0.087468
-0.0874671
-0.0874657
-0.0874639
-0.0874615
-0.0874587
-0.0874553
-0.0874514
-0.0874469
-0.0874417
-0.0874359
-0.0874294
-0.0874222
-0.0874142
-0.0874054
-0.0873957
-0.0873852
-0.0873737
-0.0873612
-0.0873477
-0.0873331
-0.0873174
-0.0873005
-0.0872823
-0.0872628
-0.0872419
-0.0872196
-0.0871957
-0.0871703
-0.0871433
-0.0871144
-0.0870838
-0.0870512
-0.0870167
-0.08698
-0.0869412
-0.0869001
-0.0868565
-0.0868105
-0.0867617
-0.0867103
-0.0866559
-0.0865985
-0.086538
-0.0864741
-0.0864067
-0.0863357
-0.0862609
-0.0861822
-0.0860993
-0.086012
-0.0859201
-0.0858235
-0.085722
-0.0856152
-0.0855029
-0.085385
-0.085261
-0.0851309
-0.0849942
-0.0848507
-0.0847001
-0.0845421
-0.0843763
-0.0842023
-0.0840199
-0.0838286
-0.083628
-0.0834178
-0.0831974
-0.0829665
-0.0827246
-0.0824712
-0.0822059
-0.081928
-0.0816371
-0.0813325
-0.0810138
-0.0806803
-0.0803314
-0.0799664
-0.0795848
-0.0791857
-0.0787685
-0.0783325
-0.0778769
-0.077401
-0.0769039
-0.0763848
-0.0758429
-0.0752774
-0.0746873
-0.0740719
-0.07343
-0.072761
-0.0720637
-0.0713373
-0.0705809
-0.0697934
-0.0689739
-0.0681215
-0.0672352
-0.0663141
-0.0653572
-0.0643637
-0.0633327
-0.0622634
-0.0611549
-0.0600066
-0.0588177